
 *******************************************************************************
 *                                                                             *
 *  --------------------------------                                           *
 *   Amsterdam Modeling Suite (AMS)              2024.105                      *
 *  --------------------------------                                           *
 *                                               r241119 2024-11-19 54abb3de   *
 *                                                                             *
 *                                                                             *
 *                              =================                              *
 *                              |               |                              *
 *                              |     A M S     |                              *
 *                              |               |                              *
 *                              =================                              *
 *                                                                             *
 *                                                                             *
 *   Online information and documentation:  https://www.scm.com/support/       *
 *   E-mail:  support@scm.com   info@scm.com                                   *
 *                                                                             *
 *   Scientific publications using AMS results must be properly referenced     *
 *   See the User Manuals (or the web site) for recommended citations          *
 *   The terms and conditions of the End User License Agreement apply to       *
 *   the use of AMS, https://www.scm.com/license-terms/                        *
 *                                                                             *
 **********************  x86_64_linux_intel / intelmpi  ************************
 
 Licensed to: Dr. P. Bobbert / Desktop Site license Eindhoven University of Technology / Eindhoven / The Netherlands 2024-07-03 09:42:24
 SCM User ID: u21543
  
 AMS 2024.105  RunTime: Dec10-2024 16:34:04  ShM Nodes: 1  Procs: 1

 AMS jobname: amsworker
 AMS jobid  : 1731903728

 Start   directory: /home/konrad/opt/infretis_new/infretis/examples/ams/water_dimer/amsworker_y1787lrn/
 Results directory: /home/konrad/opt/infretis_new/infretis/examples/ams/water_dimer/amsworker_y1787lrn/
 Scratch directory: /tmp/amstmp_amsworker_kid0.1731903728/

 RNG seed: 740561421 2031483464 616731154 994659874 -2023995517 -555470505 -553700286 1699504050

       ********************
       * Pipe Application *
       ********************
 
------------------------
MM Engine configuration
------------------------
Force field type             GAFF
 
 Using forcefield file: /home/konrad/opt/ams/ams2024.105/atomicdata/ForceFields/gaff.dat

 
--------------------
 Molecular Dynamics 
--------------------
 
          Step       Time    Temp.         E Tot         E Pot         E Kin  <Temp.>       <E Tot>       <E Pot>       <E Kin>
                     (fs)      (K)          (au)          (au)          (au)      (K)          (au)          (au)          (au)
 
             0       0.00       0.      -0.00821      -0.00821       0.00000       0.      -0.00821      -0.00821       0.00000
             0       0.00     300.       0.00315      -0.00540       0.00855     300.       0.00315      -0.00540       0.00855
             0       0.00     300.       0.00315      -0.00540       0.00855     300.       0.00315      -0.00540       0.00855
           100     100.00     305.       0.00304      -0.00566       0.00870     282.       0.00319      -0.00484       0.00803
             0       0.00     316.       0.00308      -0.00591       0.00900     316.       0.00308      -0.00591       0.00900
             0       0.00     304.       0.00208      -0.00660       0.00868     304.       0.00208      -0.00660       0.00868
             0       0.00     304.       0.00208      -0.00660       0.00868     304.       0.00208      -0.00660       0.00868
             0       0.00     300.       0.00209      -0.00647       0.00855     300.       0.00209      -0.00647       0.00855
             0       0.00     318.       0.00599      -0.00306       0.00905     318.       0.00599      -0.00306       0.00905
             0       0.00     300.       0.00549      -0.00306       0.00855     309.       0.00574      -0.00306       0.00880
             0       0.00     300.       0.00549      -0.00306       0.00855     306.       0.00566      -0.00306       0.00872
             0       0.00     300.       0.00549      -0.00306       0.00855     304.       0.00562      -0.00306       0.00868
           100     100.00     177.       0.00557       0.00052       0.00505     220.       0.00551      -0.00077       0.00628
           200     200.00     161.       0.00552       0.00093       0.00460     197.       0.00551      -0.00010       0.00561
             0       0.00     300.       0.00549      -0.00306       0.00855     306.       0.00566      -0.00306       0.00872
             0      40.00     300.       0.00700      -0.00155       0.00855     231.       0.00555      -0.00104       0.00659
             0      40.00     300.       0.00700      -0.00155       0.00855     233.       0.00558      -0.00105       0.00663
             0      40.00     300.       0.00700      -0.00155       0.00855     234.       0.00561      -0.00106       0.00667
             0      40.00     300.       0.00700      -0.00155       0.00855     233.       0.00558      -0.00105       0.00663

AMS application finished. Exiting.
NORMAL TERMINATION
     Total cpu time:       1.17
  Total system time:       0.08
 Total elapsed time:       5.93
