
 *******************************************************************************
 *                                                                             *
 *  --------------------------------                                           *
 *   Amsterdam Modeling Suite (AMS)              2024.105                      *
 *  --------------------------------                                           *
 *                                               r241119 2024-11-19 54abb3de   *
 *                                                                             *
 *                                                                             *
 *                              =================                              *
 *                              |               |                              *
 *                              |     A M S     |                              *
 *                              |               |                              *
 *                              =================                              *
 *                                                                             *
 *                                                                             *
 *   Online information and documentation:  https://www.scm.com/support/       *
 *   E-mail:  support@scm.com   info@scm.com                                   *
 *                                                                             *
 *   Scientific publications using AMS results must be properly referenced     *
 *   See the User Manuals (or the web site) for recommended citations          *
 *   The terms and conditions of the End User License Agreement apply to       *
 *   the use of AMS, https://www.scm.com/license-terms/                        *
 *                                                                             *
 **********************  x86_64_linux_intel / intelmpi  ************************
 
 Licensed to: Dr. P. Bobbert / Desktop Site license Eindhoven University of Technology / Eindhoven / The Netherlands 2024-07-03 09:42:24
 SCM User ID: u21543
  
 AMS 2024.105  RunTime: Dec10-2024 16:34:03  ShM Nodes: 1  Procs: 1

 AMS jobname: amsworker
 AMS jobid  : 105791217

 Start   directory: /home/konrad/opt/infretis_new/infretis/examples/ams/water_dimer/amsworker_rbac67c1/
 Results directory: /home/konrad/opt/infretis_new/infretis/examples/ams/water_dimer/amsworker_rbac67c1/
 Scratch directory: /tmp/amstmp_amsworker_kid0.105791217/

 RNG seed: -2062966301 -1364638176 1721397259 -896967532 401085159 1291924122 1337834347 921981800

       ********************
       * Pipe Application *
       ********************
 
------------------------
MM Engine configuration
------------------------
Force field type             GAFF
 
 Using forcefield file: /home/konrad/opt/ams/ams2024.105/atomicdata/ForceFields/gaff.dat

 
--------------------
 Molecular Dynamics 
--------------------
 
          Step       Time    Temp.         E Tot         E Pot         E Kin  <Temp.>       <E Tot>       <E Pot>       <E Kin>
                     (fs)      (K)          (au)          (au)          (au)      (K)          (au)          (au)          (au)
 
             0       0.00       0.      -0.00821      -0.00821       0.00000       0.      -0.00821      -0.00821       0.00000
             0       0.00     246.       0.00662      -0.00040       0.00702     246.       0.00662      -0.00040       0.00702
             0       0.00     300.       0.00815      -0.00040       0.00855     273.       0.00738      -0.00040       0.00778
             0       0.00     300.       0.00815      -0.00040       0.00855     282.       0.00764      -0.00040       0.00804
             0       0.00     300.       0.00815      -0.00040       0.00855     287.       0.00777      -0.00040       0.00817
             0       0.00     300.       0.00815      -0.00040       0.00855     282.       0.00764      -0.00040       0.00804
           100     100.00     285.       0.00818       0.00006       0.00812     231.       0.00817       0.00160       0.00658
           200     200.00     307.       0.00824      -0.00052       0.00875     245.       0.00818       0.00120       0.00698
             0      45.00     300.       0.01049       0.00193       0.00855     265.       0.00820       0.00064       0.00756
             0      45.00     300.       0.01049       0.00193       0.00855     266.       0.00824       0.00066       0.00758
             0      45.00     300.       0.01049       0.00193       0.00855     267.       0.00829       0.00069       0.00760
             0      45.00     300.       0.01049       0.00193       0.00855     266.       0.00824       0.00066       0.00758
           100     100.00     331.       0.01052       0.00110       0.00943     276.       0.00979       0.00193       0.00786
           200     200.00     289.       0.01051       0.00227       0.00824     275.       0.01011       0.00226       0.00784
           300     300.00     239.       0.01060       0.00380       0.00680     271.       0.01024       0.00251       0.00773
             0       5.00     322.       0.01043       0.00126       0.00917     267.       0.00852       0.00091       0.00761
             0       5.00     322.       0.01043       0.00126       0.00917     268.       0.00856       0.00091       0.00764
           100     100.00     470.       0.01051      -0.00289       0.01339     321.       0.00983       0.00068       0.00915
             0     330.00     279.       0.01044       0.00250       0.00794     270.       0.01027       0.00259       0.00768
             0     330.00     279.       0.01044       0.00250       0.00794     270.       0.01027       0.00259       0.00768
           100     100.00     122.       0.01068       0.00720       0.00349     259.       0.01034       0.00295       0.00738
           200     200.00     151.       0.01062       0.00632       0.00430     251.       0.01038       0.00323       0.00715
           300     300.00     245.       0.01061       0.00362       0.00699     260.       0.01041       0.00301       0.00740
           400     400.00     342.       0.01078       0.00104       0.00974     265.       0.01043       0.00289       0.00754

AMS application finished. Exiting.
NORMAL TERMINATION
     Total cpu time:       1.34
  Total system time:       0.10
 Total elapsed time:       6.61
